+ 2.004 /NodeList/6/DeviceList/0/$ns3::CsmaNetDevice/TxQueue/Enqueue ns3::EthernetHeader ( length/type=0x806, source=00:00:00:00:00:07, destination=ff:ff:ff:ff:ff:ff) ns3::ArpHeader (request source mac: 00-06-00:00:00:00:00:07 source ipv4: 10.1.1.7 dest ipv4: 10.1.1.3) Payload (size=18) ns3::EthernetTrailer (fcs=0)
- 2.004 /NodeList/6/DeviceList/0/$ns3::CsmaNetDevice/TxQueue/Dequeue ns3::EthernetHeader ( length/type=0x806, source=00:00:00:00:00:07, destination=ff:ff:ff:ff:ff:ff) ns3::ArpHeader (request source mac: 00-06-00:00:00:00:00:07 source ipv4: 10.1.1.7 dest ipv4: 10.1.1.3) Payload (size=18) ns3::EthernetTrailer (fcs=0)
+ 2.004 /NodeList/7/DeviceList/0/$ns3::CsmaNetDevice/TxQueue/Enqueue ns3::EthernetHeader ( length/type=0x806, source=00:00:00:00:00:08, destination=ff:ff:ff:ff:ff:ff) ns3::ArpHeader (request source mac: 00-06-00:00:00:00:00:08 source ipv4: 10.1.1.8 dest ipv4: 10.1.1.4) Payload (size=18) ns3::EthernetTrailer (fcs=0)
- 2.004 /NodeList/7/DeviceList/0/$ns3::CsmaNetDevice/TxQueue/Dequeue ns3::EthernetHeader ( length/type=0x806, source=00:00:00:00:00:08, destination=ff:ff:ff:ff:ff:ff) ns3::ArpHeader (request source mac: 00-06-00:00:00:00:00:08 source ipv4: 10.1.1.8 dest ipv4: 10.1.1.4) Payload (size=18) ns3::EthernetTrailer (fcs=0)
+ 2.006 /NodeList/0/DeviceList/0/$ns3::CsmaNetDevice/TxQueue/Enqueue ns3::EthernetHeader ( length/type=0x806, source=00:00:00:00:00:01, destination=ff:ff:ff:ff:ff:ff) ns3::ArpHeader (request source mac: 00-06-00:00:00:00:00:01 source ipv4: 10.1.1.1 dest ipv4: 10.1.1.5) Payload (size=18) ns3::EthernetTrailer (fcs=0)
- 2.006 /NodeList/0/DeviceList/0/$ns3::CsmaNetDevice/TxQueue/Dequeue ns3::EthernetHeader ( length/type=0x806, source=00:00:00:00:00:01, destination=ff:ff:ff:ff:ff:ff) ns3::ArpHeader (request source mac: 00-06-00:00:00:00:00:01 source ipv4: 10.1.1.1 dest ipv4: 10.1.1.5) Payload (size=18) ns3::EthernetTrailer (fcs=0)
r 2.0065 /NodeList/0/DeviceList/0/$ns3::CsmaNetDevice/MacRx ns3::EthernetHeader ( length/type=0x806, source=00:00:00:00:00:07, destination=ff:ff:ff:ff:ff:ff) ns3::ArpHeader (request source mac: 00-06-00:00:00:00:00:07 source ipv4: 10.1.1.7 dest ipv4: 10.1.1.3) Payload (size=18) ns3::EthernetTrailer (fcs=0)
r 2.0065 /NodeList/1/DeviceList/0/$ns3::CsmaNetDevice/MacRx ns3::EthernetHeader ( length/type=0x806, source=00:00:00:00:00:07, destination=ff:ff:ff:ff:ff:ff) ns3::ArpHeader (request source mac: 00-06-00:00:00:00:00:07 source ipv4: 10.1.1.7 dest ipv4: 10.1.1.3) Payload (size=18) ns3::EthernetTrailer (fcs=0)
r 2.0065 /NodeList/2/DeviceList/0/$ns3::CsmaNetDevice/MacRx ns3::EthernetHeader ( length/type=0x806, source=00:00:00:00:00:07, destination=ff:ff:ff:ff:ff:ff) ns3::ArpHeader (request source mac: 00-06-00:00:00:00:00:07 source ipv4: 10.1.1.7 dest ipv4: 10.1.1.3) Payload (size=18) ns3::EthernetTrailer (fcs=0)
+ 2.0065 /NodeList/2/DeviceList/0/$ns3::CsmaNetDevice/TxQueue/Enqueue ns3::EthernetHeader ( length/type=0x806, source=00:00:00:00:00:03, destination=00:00:00:00:00:07) ns3::ArpHeader (reply source mac: 00-06-00:00:00:00:00:03 source ipv4: 10.1.1.3 dest mac: 00-06-00:00:00:00:00:07 dest ipv4: 10.1.1.7) Payload (size=18) ns3::EthernetTrailer (fcs=0)
- 2.0065 /NodeList/2/DeviceList/0/$ns3::CsmaNetDevice/TxQueue/Dequeue ns3::EthernetHeader ( length/type=0x806, source=00:00:00:00:00:03, destination=00:00:00:00:00:07) ns3::ArpHeader (reply source mac: 00-06-00:00:00:00:00:03 source ipv4: 10.1.1.3 dest mac: 00-06-00:00:00:00:00:07 dest ipv4: 10.1.1.7) Payload (size=18) ns3::EthernetTrailer (fcs=0)
r 2.0065 /NodeList/3/DeviceList/0/$ns3::CsmaNetDevice/MacRx ns3::EthernetHeader ( length/type=0x806, source=00:00:00:00:00:07, destination=ff:ff:ff:ff:ff:ff) ns3::ArpHeader (request source mac: 00-06-00:00:00:00:00:07 source ipv4: 10.1.1.7 dest ipv4: 10.1.1.3) Payload (size=18) ns3::EthernetTrailer (fcs=0)
r 2.0065 /NodeList/4/DeviceList/0/$ns3::CsmaNetDevice/MacRx ns3::EthernetHeader ( length/type=0x806, source=00:00:00:00:00:07, destination=ff:ff:ff:ff:ff:ff) ns3::ArpHeader (request source mac: 00-06-00:00:00:00:00:07 source ipv4: 10.1.1.7 dest ipv4: 10.1.1.3) Payload (size=18) ns3::EthernetTrailer (fcs=0)
r 2.0065 /NodeList/5/DeviceList/0/$ns3::CsmaNetDevice/MacRx ns3::EthernetHeader ( length/type=0x806, source=00:00:00:00:00:07, destination=ff:ff:ff:ff:ff:ff) ns3::ArpHeader (request source mac: 00-06-00:00:00:00:00:07 source ipv4: 10.1.1.7 dest ipv4: 10.1.1.3) Payload (size=18) ns3::EthernetTrailer (fcs=0)
r 2.0065 /NodeList/7/DeviceList/0/$ns3::CsmaNetDevice/MacRx ns3::EthernetHeader ( length/type=0x806, source=00:00:00:00:00:07, destination=ff:ff:ff:ff:ff:ff) ns3::ArpHeader (request source mac: 00-06-00:00:00:00:00:07 source ipv4: 10.1.1.7 dest ipv4: 10.1.1.3) Payload (size=18) ns3::EthernetTrailer (fcs=0)
+ 2.007 /NodeList/1/DeviceList/0/$ns3::CsmaNetDevice/TxQueue/Enqueue ns3::EthernetHeader ( length/type=0x806, source=00:00:00:00:00:02, destination=ff:ff:ff:ff:ff:ff) ns3::ArpHeader (request source mac: 00-06-00:00:00:00:00:02 source ipv4: 10.1.1.2 dest ipv4: 10.1.1.6) Payload (size=18) ns3::EthernetTrailer (fcs=0)
- 2.007 /NodeList/1/DeviceList/0/$ns3::CsmaNetDevice/TxQueue/Dequeue ns3::EthernetHeader ( length/type=0x806, source=00:00:00:00:00:02, destination=ff:ff:ff:ff:ff:ff) ns3::ArpHeader (request source mac: 00-06-00:00:00:00:00:02 source ipv4: 10.1.1.2 dest ipv4: 10.1.1.6) Payload (size=18) ns3::EthernetTrailer (fcs=0)
r 2.009 /NodeList/0/DeviceList/0/$ns3::CsmaNetDevice/MacRx ns3::EthernetHeader ( length/type=0x806, source=00:00:00:00:00:08, destination=ff:ff:ff:ff:ff:ff) ns3::ArpHeader (request source mac: 00-06-00:00:00:00:00:08 source ipv4: 10.1.1.8 dest ipv4: 10.1.1.4) Payload (size=18) ns3::EthernetTrailer (fcs=0)
r 2.009 /NodeList/1/DeviceList/0/$ns3::CsmaNetDevice/MacRx ns3::EthernetHeader ( length/type=0x806, source=00:00:00:00:00:08, destination=ff:ff:ff:ff:ff:ff) ns3::ArpHeader (request source mac: 00-06-00:00:00:00:00:08 source ipv4: 10.1.1.8 dest ipv4: 10.1.1.4) Payload (size=18) ns3::EthernetTrailer (fcs=0)
r 2.009 /NodeList/2/DeviceList/0/$ns3::CsmaNetDevice/MacRx ns3::EthernetHeader ( length/type=0x806, source=00:00:00:00:00:08, destination=ff:ff:ff:ff:ff:ff) ns3::ArpHeader (request source mac: 00-06-00:00:00:00:00:08 source ipv4: 10.1.1.8 dest ipv4: 10.1.1.4) Payload (size=18) ns3::EthernetTrailer (fcs=0)
r 2.009 /NodeList/3/DeviceList/0/$ns3::CsmaNetDevice/MacRx ns3::EthernetHeader ( length/type=0x806, source=00:00:00:00:00:08, destination=ff:ff:ff:ff:ff:ff) ns3::ArpHeader (request source mac: 00-06-00:00:00:00:00:08 source ipv4: 10.1.1.8 dest ipv4: 10.1.1.4) Payload (size=18) ns3::EthernetTrailer (fcs=0)
+ 2.009 /NodeList/3/DeviceList/0/$ns3::CsmaNetDevice/TxQueue/Enqueue ns3::EthernetHeader ( length/type=0x806, source=00:00:00:00:00:04, destination=00:00:00:00:00:08) ns3::ArpHeader (reply source mac: 00-06-00:00:00:00:00:04 source ipv4: 10.1.1.4 dest mac: 00-06-00:00:00:00:00:08 dest ipv4: 10.1.1.8) Payload (size=18) ns3::EthernetTrailer (fcs=0)
- 2.009 /NodeList/3/DeviceList/0/$ns3::CsmaNetDevice/TxQueue/Dequeue ns3::EthernetHeader ( length/type=0x806, source=00:00:00:00:00:04, destination=00:00:00:00:00:08) ns3::ArpHeader (reply source mac: 00-06-00:00:00:00:00:04 source ipv4: 10.1.1.4 dest mac: 00-06-00:00:00:00:00:08 dest ipv4: 10.1.1.8) Payload (size=18) ns3::EthernetTrailer (fcs=0)
r 2.009 /NodeList/4/DeviceList/0/$ns3::CsmaNetDevice/MacRx ns3::EthernetHeader ( length/type=0x806, source=00:00:00:00:00:08, destination=ff:ff:ff:ff:ff:ff) ns3::ArpHeader (request source mac: 00-06-00:00:00:00:00:08 source ipv4: 10.1.1.8 dest ipv4: 10.1.1.4) Payload (size=18) ns3::EthernetTrailer (fcs=0)
r 2.009 /NodeList/5/DeviceList/0/$ns3::CsmaNetDevice/MacRx ns3::EthernetHeader ( length/type=0x806, source=00:00:00:00:00:08, destination=ff:ff:ff:ff:ff:ff) ns3::ArpHeader (request source mac: 00-06-00:00:00:00:00:08 source ipv4: 10.1.1.8 dest ipv4: 10.1.1.4) Payload (size=18) ns3::EthernetTrailer (fcs=0)
r 2.009 /NodeList/6/DeviceList/0/$ns3::CsmaNetDevice/MacRx ns3::EthernetHeader ( length/type=0x806, source=00:00:00:00:00:08, destination=ff:ff:ff:ff:ff:ff) ns3::ArpHeader (request source mac: 00-06-00:00:00:00:00:08 source ipv4: 10.1.1.8 dest ipv4: 10.1.1.4) Payload (size=18) ns3::EthernetTrailer (fcs=0)
r 2.0115 /NodeList/7/DeviceList/0/$ns3::CsmaNetDevice/MacRx ns3::EthernetHeader ( length/type=0x806, source=00:00:00:00:00:04, destination=00:00:00:00:00:08) ns3::ArpHeader (reply source mac: 00-06-00:00:00:00:00:04 source ipv4: 10.1.1.4 dest mac: 00-06-00:00:00:00:00:08 dest ipv4: 10.1.1.8) Payload (size=18) ns3::EthernetTrailer (fcs=0)
+ 2.0115 /NodeList/7/DeviceList/0/$ns3::CsmaNetDevice/TxQueue/Enqueue ns3::EthernetHeader ( length/type=0x800, source=00:00:00:00:00:08, destination=00:00:00:00:00:04) ns3::Ipv4Header (tos 0x0 DSCP Default ECN Not-ECT ttl 64 id 0 protocol 17 offset (bytes) 0 flags [MF] length: 1500 10.1.1.8 > 10.1.1.4) ns3::UdpHeader (length: 16392 49153 > 9) Payload Fragment [0:1472] ns3::EthernetTrailer (fcs=0)
- 2.0115 /NodeList/7/DeviceList/0/$ns3::CsmaNetDevice/TxQueue/Dequeue ns3::EthernetHeader ( length/type=0x800, source=00:00:00:00:00:08, destination=00:00:00:00:00:04) ns3::Ipv4Header (tos 0x0 DSCP Default ECN Not-ECT ttl 64 id 0 protocol 17 offset (bytes) 0 flags [MF] length: 1500 10.1.1.8 > 10.1.1.4) ns3::UdpHeader (length: 16392 49153 > 9) Payload Fragment [0:1472] ns3::EthernetTrailer (fcs=0)
+ 2.0115 /NodeList/7/DeviceList/0/$ns3::CsmaNetDevice/TxQueue/Enqueue ns3::EthernetHeader ( length/type=0x800, source=00:00:00:00:00:08, destination=00:00:00:00:00:04) ns3::Ipv4Header (tos 0x0 DSCP Default ECN Not-ECT ttl 64 id 0 protocol 17 offset (bytes) 1480 flags [MF] length: 1500 10.1.1.8 > 10.1.1.4) Payload Fragment [1472:2952] ns3::EthernetTrailer (fcs=0)
+ 2.0115 /NodeList/7/DeviceList/0/$ns3::CsmaNetDevice/TxQueue/Enqueue ns3::EthernetHeader ( length/type=0x800, source=00:00:00:00:00:08, destination=00:00:00:00:00:04) ns3::Ipv4Header (tos 0x0 DSCP Default ECN Not-ECT ttl 64 id 0 protocol 17 offset (bytes) 2960 flags [MF] length: 1500 10.1.1.8 > 10.1.1.4) Payload Fragment [2952:4432] ns3::EthernetTrailer (fcs=0)
r 2.014 /NodeList/0/DeviceList/0/$ns3::CsmaNetDevice/MacRx ns3::EthernetHeader ( length/type=0x806, source=00:00:00:00:00:02, destination=ff:ff:ff:ff:ff:ff) ns3::ArpHeader (request source mac: 00-06-00:00:00:00:00:02 source ipv4: 10.1.1.2 dest ipv4: 10.1.1.6) Payload (size=18) ns3::EthernetTrailer (fcs=0)
r 2.014 /NodeList/2/DeviceList/0/$ns3::CsmaNetDevice/MacRx ns3::EthernetHeader ( length/type=0x806, source=00:00:00:00:00:02, destination=ff:ff:ff:ff:ff:ff) ns3::ArpHeader (request source mac: 00-06-00:00:00:00:00:02 source ipv4: 10.1.1.2 dest ipv4: 10.1.1.6) Payload (size=18) ns3::EthernetTrailer (fcs=0)
r 2.014 /NodeList/3/DeviceList/0/$ns3::CsmaNetDevice/MacRx ns3::EthernetHeader ( length/type=0x806, source=00:00:00:00:00:02, destination=ff:ff:ff:ff:ff:ff) ns3::ArpHeader (request source mac: 00-06-00:00:00:00:00:02 source ipv4: 10.1.1.2 dest ipv4: 10.1.1.6) Payload (size=18) ns3::EthernetTrailer (fcs=0)
r 2.014 /NodeList/4/DeviceList/0/$ns3::CsmaNetDevice/MacRx ns3::EthernetHeader ( length/type=0x806, source=00:00:00:00:00:02, destination=ff:ff:ff:ff:ff:ff) ns3::ArpHeader (request source mac: 00-06-00:00:00:00:00:02 source ipv4: 10.1.1.2 dest ipv4: 10.1.1.6) Payload (size=18) ns3::EthernetTrailer (fcs=0)
r 2.014 /NodeList/5/DeviceList/0/$ns3::CsmaNetDevice/MacRx ns3::EthernetHeader ( length/type=0x806, source=00:00:00:00:00:02, destination=ff:ff:ff:ff:ff:ff) ns3::ArpHeader (request source mac: 00-06-00:00:00:00:00:02 source ipv4: 10.1.1.2 dest ipv4: 10.1.1.6) Payload (size=18) ns3::EthernetTrailer (fcs=0)
+ 2.014 /NodeList/5/DeviceList/0/$ns3::CsmaNetDevice/TxQueue/Enqueue ns3::EthernetHeader ( length/type=0x806, source=00:00:00:00:00:06, destination=00:00:00:00:00:02) ns3::ArpHeader (reply source mac: 00-06-00:00:00:00:00:06 source ipv4: 10.1.1.6 dest mac: 00-06-00:00:00:00:00:02 dest ipv4: 10.1.1.2) Payload (size=18) ns3::EthernetTrailer (fcs=0)
- 2.014 /NodeList/5/DeviceList/0/$ns3::CsmaNetDevice/TxQueue/Dequeue ns3::EthernetHeader ( length/type=0x806, source=00:00:00:00:00:06, destination=00:00:00:00:00:02) ns3::ArpHeader (reply source mac: 00-06-00:00:00:00:00:06 source ipv4: 10.1.1.6 dest mac: 00-06-00:00:00:00:00:02 dest ipv4: 10.1.1.2) Payload (size=18) ns3::EthernetTrailer (fcs=0)
r 2.014 /NodeList/6/DeviceList/0/$ns3::CsmaNetDevice/MacRx ns3::EthernetHeader ( length/type=0x806, source=00:00:00:00:00:02, destination=ff:ff:ff:ff:ff:ff) ns3::ArpHeader (request source mac: 00-06-00:00:00:00:00:02 source ipv4: 10.1.1.2 dest ipv4: 10.1.1.6) Payload (size=18) ns3::EthernetTrailer (fcs=0)
r 2.014 /NodeList/7/DeviceList/0/$ns3::CsmaNetDevice/MacRx ns3::EthernetHeader ( length/type=0x806, source=00:00:00:00:00:02, destination=ff:ff:ff:ff:ff:ff) ns3::ArpHeader (request source mac: 00-06-00:00:00:00:00:02 source ipv4: 10.1.1.2 dest ipv4: 10.1.1.6) Payload (size=18) ns3::EthernetTrailer (fcs=0)
- 2.02596 /NodeList/7/DeviceList/0/$ns3::CsmaNetDevice/TxQueue/Dequeue ns3::EthernetHeader ( length/type=0x800, source=00:00:00:00:00:08, destination=00:00:00:00:00:04) ns3::Ipv4Header (tos 0x0 DSCP Default ECN Not-ECT ttl 64 id 0 protocol 17 offset (bytes) 1480 flags [MF] length: 1500 10.1.1.8 > 10.1.1.4) Payload Fragment [1472:2952] ns3::EthernetTrailer (fcs=0)
r 2.02786 /NodeList/3/DeviceList/0/$ns3::CsmaNetDevice/MacRx ns3::EthernetHeader ( length/type=0x800, source=00:00:00:00:00:08, destination=00:00:00:00:00:04) ns3::Ipv4Header (tos 0x0 DSCP Default ECN Not-ECT ttl 64 id 0 protocol 17 offset (bytes) 0 flags [MF] length: 1500 10.1.1.8 > 10.1.1.4) ns3::UdpHeader (length: 16392 49153 > 9) Payload Fragment [0:1472] ns3::EthernetTrailer (fcs=0)
- 2.03982 /NodeList/7/DeviceList/0/$ns3::CsmaNetDevice/TxQueue/Dequeue ns3::EthernetHeader ( length/type=0x800, source=00:00:00:00:00:08, destination=00:00:00:00:00:04) ns3::Ipv4Header (tos 0x0 DSCP Default ECN Not-ECT ttl 64 id 0 protocol 17 offset (bytes) 2960 flags [MF] length: 1500 10.1.1.8 > 10.1.1.4) Payload Fragment [2952:4432] ns3::EthernetTrailer (fcs=0)
r 2.04173 /NodeList/3/DeviceList/0/$ns3::CsmaNetDevice/MacRx ns3::EthernetHeader ( length/type=0x800, source=00:00:00:00:00:08, destination=00:00:00:00:00:04) ns3::Ipv4Header (tos 0x0 DSCP Default ECN Not-ECT ttl 64 id 0 protocol 17 offset (bytes) 1480 flags [MF] length: 1500 10.1.1.8 > 10.1.1.4) Payload Fragment [1472:2952] ns3::EthernetTrailer (fcs=0)
r 2.05559 /NodeList/3/DeviceList/0/$ns3::CsmaNetDevice/MacRx ns3::EthernetHeader ( length/type=0x800, source=00:00:00:00:00:08, destination=00:00:00:00:00:04) ns3::Ipv4Header (tos 0x0 DSCP Default ECN Not-ECT ttl 64 id 0 protocol 17 offset (bytes) 2960 flags [MF] length: 1500 10.1.1.8 > 10.1.1.4) Payload Fragment [2952:4432] ns3::EthernetTrailer (fcs=0)
+ 3 /NodeList/0/DeviceList/0/$ns3::CsmaNetDevice/TxQueue/Enqueue ns3::EthernetHeader ( length/type=0x806, source=00:00:00:00:00:01, destination=ff:ff:ff:ff:ff:ff) ns3::ArpHeader (request source mac: 00-06-00:00:00:00:00:01 source ipv4: 10.1.1.1 dest ipv4: 10.1.1.5) Payload (size=18) ns3::EthernetTrailer (fcs=0)
- 3 /NodeList/0/DeviceList/0/$ns3::CsmaNetDevice/TxQueue/Dequeue ns3::EthernetHeader ( length/type=0x806, source=00:00:00:00:00:01, destination=ff:ff:ff:ff:ff:ff) ns3::ArpHeader (request source mac: 00-06-00:00:00:00:00:01 source ipv4: 10.1.1.1 dest ipv4: 10.1.1.5) Payload (size=18) ns3::EthernetTrailer (fcs=0)
+ 3 /NodeList/1/DeviceList/0/$ns3::CsmaNetDevice/TxQueue/Enqueue ns3::EthernetHeader ( length/type=0x806, source=00:00:00:00:00:02, destination=ff:ff:ff:ff:ff:ff) ns3::ArpHeader (request source mac: 00-06-00:00:00:00:00:02 source ipv4: 10.1.1.2 dest ipv4: 10.1.1.6) Payload (size=18) ns3::EthernetTrailer (fcs=0)
- 3 /NodeList/1/DeviceList/0/$ns3::CsmaNetDevice/TxQueue/Dequeue ns3::EthernetHeader ( length/type=0x806, source=00:00:00:00:00:02, destination=ff:ff:ff:ff:ff:ff) ns3::ArpHeader (request source mac: 00-06-00:00:00:00:00:02 source ipv4: 10.1.1.2 dest ipv4: 10.1.1.6) Payload (size=18) ns3::EthernetTrailer (fcs=0)
+ 3 /NodeList/6/DeviceList/0/$ns3::CsmaNetDevice/TxQueue/Enqueue ns3::EthernetHeader ( length/type=0x806, source=00:00:00:00:00:07, destination=ff:ff:ff:ff:ff:ff) ns3::ArpHeader (request source mac: 00-06-00:00:00:00:00:07 source ipv4: 10.1.1.7 dest ipv4: 10.1.1.3) Payload (size=18) ns3::EthernetTrailer (fcs=0)
- 3 /NodeList/6/DeviceList/0/$ns3::CsmaNetDevice/TxQueue/Dequeue ns3::EthernetHeader ( length/type=0x806, source=00:00:00:00:00:07, destination=ff:ff:ff:ff:ff:ff) ns3::ArpHeader (request source mac: 00-06-00:00:00:00:00:07 source ipv4: 10.1.1.7 dest ipv4: 10.1.1.3) Payload (size=18) ns3::EthernetTrailer (fcs=0)
r 3.0025 /NodeList/1/DeviceList/0/$ns3::CsmaNetDevice/MacRx ns3::EthernetHeader ( length/type=0x806, source=00:00:00:00:00:01, destination=ff:ff:ff:ff:ff:ff) ns3::ArpHeader (request source mac: 00-06-00:00:00:00:00:01 source ipv4: 10.1.1.1 dest ipv4: 10.1.1.5) Payload (size=18) ns3::EthernetTrailer (fcs=0)
r 3.0025 /NodeList/2/DeviceList/0/$ns3::CsmaNetDevice/MacRx ns3::EthernetHeader ( length/type=0x806, source=00:00:00:00:00:01, destination=ff:ff:ff:ff:ff:ff) ns3::ArpHeader (request source mac: 00-06-00:00:00:00:00:01 source ipv4: 10.1.1.1 dest ipv4: 10.1.1.5) Payload (size=18) ns3::EthernetTrailer (fcs=0)
r 3.0025 /NodeList/3/DeviceList/0/$ns3::CsmaNetDevice/MacRx ns3::EthernetHeader ( length/type=0x806, source=00:00:00:00:00:01, destination=ff:ff:ff:ff:ff:ff) ns3::ArpHeader (request source mac: 00-06-00:00:00:00:00:01 source ipv4: 10.1.1.1 dest ipv4: 10.1.1.5) Payload (size=18) ns3::EthernetTrailer (fcs=0)
r 3.0025 /NodeList/4/DeviceList/0/$ns3::CsmaNetDevice/MacRx ns3::EthernetHeader ( length/type=0x806, source=00:00:00:00:00:01, destination=ff:ff:ff:ff:ff:ff) ns3::ArpHeader (request source mac: 00-06-00:00:00:00:00:01 source ipv4: 10.1.1.1 dest ipv4: 10.1.1.5) Payload (size=18) ns3::EthernetTrailer (fcs=0)
+ 3.0025 /NodeList/4/DeviceList/0/$ns3::CsmaNetDevice/TxQueue/Enqueue ns3::EthernetHeader ( length/type=0x806, source=00:00:00:00:00:05, destination=00:00:00:00:00:01) ns3::ArpHeader (reply source mac: 00-06-00:00:00:00:00:05 source ipv4: 10.1.1.5 dest mac: 00-06-00:00:00:00:00:01 dest ipv4: 10.1.1.1) Payload (size=18) ns3::EthernetTrailer (fcs=0)
- 3.0025 /NodeList/4/DeviceList/0/$ns3::CsmaNetDevice/TxQueue/Dequeue ns3::EthernetHeader ( length/type=0x806, source=00:00:00:00:00:05, destination=00:00:00:00:00:01) ns3::ArpHeader (reply source mac: 00-06-00:00:00:00:00:05 source ipv4: 10.1.1.5 dest mac: 00-06-00:00:00:00:00:01 dest ipv4: 10.1.1.1) Payload (size=18) ns3::EthernetTrailer (fcs=0)
r 3.0025 /NodeList/5/DeviceList/0/$ns3::CsmaNetDevice/MacRx ns3::EthernetHeader ( length/type=0x806, source=00:00:00:00:00:01, destination=ff:ff:ff:ff:ff:ff) ns3::ArpHeader (request source mac: 00-06-00:00:00:00:00:01 source ipv4: 10.1.1.1 dest ipv4: 10.1.1.5) Payload (size=18) ns3::EthernetTrailer (fcs=0)
r 3.0025 /NodeList/6/DeviceList/0/$ns3::CsmaNetDevice/MacRx ns3::EthernetHeader ( length/type=0x806, source=00:00:00:00:00:01, destination=ff:ff:ff:ff:ff:ff) ns3::ArpHeader (request source mac: 00-06-00:00:00:00:00:01 source ipv4: 10.1.1.1 dest ipv4: 10.1.1.5) Payload (size=18) ns3::EthernetTrailer (fcs=0)
r 3.0025 /NodeList/7/DeviceList/0/$ns3::CsmaNetDevice/MacRx ns3::EthernetHeader ( length/type=0x806, source=00:00:00:00:00:01, destination=ff:ff:ff:ff:ff:ff) ns3::ArpHeader (request source mac: 00-06-00:00:00:00:00:01 source ipv4: 10.1.1.1 dest ipv4: 10.1.1.5) Payload (size=18) ns3::EthernetTrailer (fcs=0)
r 3.005 /NodeList/0/DeviceList/0/$ns3::CsmaNetDevice/MacRx ns3::EthernetHeader ( length/type=0x806, source=00:00:00:00:00:07, destination=ff:ff:ff:ff:ff:ff) ns3::ArpHeader (request source mac: 00-06-00:00:00:00:00:07 source ipv4: 10.1.1.7 dest ipv4: 10.1.1.3) Payload (size=18) ns3::EthernetTrailer (fcs=0)
r 3.005 /NodeList/1/DeviceList/0/$ns3::CsmaNetDevice/MacRx ns3::EthernetHeader ( length/type=0x806, source=00:00:00:00:00:07, destination=ff:ff:ff:ff:ff:ff) ns3::ArpHeader (request source mac: 00-06-00:00:00:00:00:07 source ipv4: 10.1.1.7 dest ipv4: 10.1.1.3) Payload (size=18) ns3::EthernetTrailer (fcs=0)
r 3.005 /NodeList/2/DeviceList/0/$ns3::CsmaNetDevice/MacRx ns3::EthernetHeader ( length/type=0x806, source=00:00:00:00:00:07, destination=ff:ff:ff:ff:ff:ff) ns3::ArpHeader (request source mac: 00-06-00:00:00:00:00:07 source ipv4: 10.1.1.7 dest ipv4: 10.1.1.3) Payload (size=18) ns3::EthernetTrailer (fcs=0)
+ 3.005 /NodeList/2/DeviceList/0/$ns3::CsmaNetDevice/TxQueue/Enqueue ns3::EthernetHeader ( length/type=0x806, source=00:00:00:00:00:03, destination=00:00:00:00:00:07) ns3::ArpHeader (reply source mac: 00-06-00:00:00:00:00:03 source ipv4: 10.1.1.3 dest mac: 00-06-00:00:00:00:00:07 dest ipv4: 10.1.1.7) Payload (size=18) ns3::EthernetTrailer (fcs=0)
- 3.005 /NodeList/2/DeviceList/0/$ns3::CsmaNetDevice/TxQueue/Dequeue ns3::EthernetHeader ( length/type=0x806, source=00:00:00:00:00:03, destination=00:00:00:00:00:07) ns3::ArpHeader (reply source mac: 00-06-00:00:00:00:00:03 source ipv4: 10.1.1.3 dest mac: 00-06-00:00:00:00:00:07 dest ipv4: 10.1.1.7) Payload (size=18) ns3::EthernetTrailer (fcs=0)
r 3.005 /NodeList/3/DeviceList/0/$ns3::CsmaNetDevice/MacRx ns3::EthernetHeader ( length/type=0x806, source=00:00:00:00:00:07, destination=ff:ff:ff:ff:ff:ff) ns3::ArpHeader (request source mac: 00-06-00:00:00:00:00:07 source ipv4: 10.1.1.7 dest ipv4: 10.1.1.3) Payload (size=18) ns3::EthernetTrailer (fcs=0)
r 3.005 /NodeList/4/DeviceList/0/$ns3::CsmaNetDevice/MacRx ns3::EthernetHeader ( length/type=0x806, source=00:00:00:00:00:07, destination=ff:ff:ff:ff:ff:ff) ns3::ArpHeader (request source mac: 00-06-00:00:00:00:00:07 source ipv4: 10.1.1.7 dest ipv4: 10.1.1.3) Payload (size=18) ns3::EthernetTrailer (fcs=0)
r 3.005 /NodeList/5/DeviceList/0/$ns3::CsmaNetDevice/MacRx ns3::EthernetHeader ( length/type=0x806, source=00:00:00:00:00:07, destination=ff:ff:ff:ff:ff:ff) ns3::ArpHeader (request source mac: 00-06-00:00:00:00:00:07 source ipv4: 10.1.1.7 dest ipv4: 10.1.1.3) Payload (size=18) ns3::EthernetTrailer (fcs=0)
r 3.005 /NodeList/7/DeviceList/0/$ns3::CsmaNetDevice/MacRx ns3::EthernetHeader ( length/type=0x806, source=00:00:00:00:00:07, destination=ff:ff:ff:ff:ff:ff) ns3::ArpHeader (request source mac: 00-06-00:00:00:00:00:07 source ipv4: 10.1.1.7 dest ipv4: 10.1.1.3) Payload (size=18) ns3::EthernetTrailer (fcs=0)
r 3.0075 /NodeList/6/DeviceList/0/$ns3::CsmaNetDevice/MacRx ns3::EthernetHeader ( length/type=0x806, source=00:00:00:00:00:03, destination=00:00:00:00:00:07) ns3::ArpHeader (reply source mac: 00-06-00:00:00:00:00:03 source ipv4: 10.1.1.3 dest mac: 00-06-00:00:00:00:00:07 dest ipv4: 10.1.1.7) Payload (size=18) ns3::EthernetTrailer (fcs=0)
+ 3.0075 /NodeList/6/DeviceList/0/$ns3::CsmaNetDevice/TxQueue/Enqueue ns3::EthernetHeader ( length/type=0x800, source=00:00:00:00:00:07, destination=00:00:00:00:00:03) ns3::Ipv4Header (tos 0x0 DSCP Default ECN Not-ECT ttl 64 id 0 protocol 17 offset (bytes) 0 flags [MF] length: 1500 10.1.1.7 > 10.1.1.3) ns3::UdpHeader (length: 16392 49153 > 9) Payload Fragment [0:1472] ns3::EthernetTrailer (fcs=0)
- 3.0075 /NodeList/6/DeviceList/0/$ns3::CsmaNetDevice/TxQueue/Dequeue ns3::EthernetHeader ( length/type=0x800, source=00:00:00:00:00:07, destination=00:00:00:00:00:03) ns3::Ipv4Header (tos 0x0 DSCP Default ECN Not-ECT ttl 64 id 0 protocol 17 offset (bytes) 0 flags [MF] length: 1500 10.1.1.7 > 10.1.1.3) ns3::UdpHeader (length: 16392 49153 > 9) Payload Fragment [0:1472] ns3::EthernetTrailer (fcs=0)
+ 3.0075 /NodeList/6/DeviceList/0/$ns3::CsmaNetDevice/TxQueue/Enqueue ns3::EthernetHeader ( length/type=0x800, source=00:00:00:00:00:07, destination=00:00:00:00:00:03) ns3::Ipv4Header (tos 0x0 DSCP Default ECN Not-ECT ttl 64 id 0 protocol 17 offset (bytes) 1480 flags [MF] length: 1500 10.1.1.7 > 10.1.1.3) Payload Fragment [1472:2952] ns3::EthernetTrailer (fcs=0)
+ 3.0075 /NodeList/6/DeviceList/0/$ns3::CsmaNetDevice/TxQueue/Enqueue ns3::EthernetHeader ( length/type=0x800, source=00:00:00:00:00:07, destination=00:00:00:00:00:03) ns3::Ipv4Header (tos 0x0 DSCP Default ECN Not-ECT ttl 64 id 0 protocol 17 offset (bytes) 2960 flags [MF] length: 1500 10.1.1.7 > 10.1.1.3) Payload Fragment [2952:4432] ns3::EthernetTrailer (fcs=0)
- 3.01703 /NodeList/6/DeviceList/0/$ns3::CsmaNetDevice/TxQueue/Dequeue ns3::EthernetHeader ( length/type=0x800, source=00:00:00:00:00:07, destination=00:00:00:00:00:03) ns3::Ipv4Header (tos 0x0 DSCP Default ECN Not-ECT ttl 64 id 0 protocol 17 offset (bytes) 1480 flags [MF] length: 1500 10.1.1.7 > 10.1.1.3) Payload Fragment [1472:2952] ns3::EthernetTrailer (fcs=0)
- 3.02655 /NodeList/6/DeviceList/0/$ns3::CsmaNetDevice/TxQueue/Dequeue ns3::EthernetHeader ( length/type=0x800, source=00:00:00:00:00:07, destination=00:00:00:00:00:03) ns3::Ipv4Header (tos 0x0 DSCP Default ECN Not-ECT ttl 64 id 0 protocol 17 offset (bytes) 2960 flags [MF] length: 1500 10.1.1.7 > 10.1.1.3) Payload Fragment [2952:4432] ns3::EthernetTrailer (fcs=0)
+ 4 /NodeList/0/DeviceList/0/$ns3::CsmaNetDevice/TxQueue/Enqueue ns3::EthernetHeader ( length/type=0x806, source=00:00:00:00:00:01, destination=ff:ff:ff:ff:ff:ff) ns3::ArpHeader (request source mac: 00-06-00:00:00:00:00:01 source ipv4: 10.1.1.1 dest ipv4: 10.1.1.5) Payload (size=18) ns3::EthernetTrailer (fcs=0)
- 4 /NodeList/0/DeviceList/0/$ns3::CsmaNetDevice/TxQueue/Dequeue ns3::EthernetHeader ( length/type=0x806, source=00:00:00:00:00:01, destination=ff:ff:ff:ff:ff:ff) ns3::ArpHeader (request source mac: 00-06-00:00:00:00:00:01 source ipv4: 10.1.1.1 dest ipv4: 10.1.1.5) Payload (size=18) ns3::EthernetTrailer (fcs=0)
+ 4 /NodeList/1/DeviceList/0/$ns3::CsmaNetDevice/TxQueue/Enqueue ns3::EthernetHeader ( length/type=0x806, source=00:00:00:00:00:02, destination=ff:ff:ff:ff:ff:ff) ns3::ArpHeader (request source mac: 00-06-00:00:00:00:00:02 source ipv4: 10.1.1.2 dest ipv4: 10.1.1.6) Payload (size=18) ns3::EthernetTrailer (fcs=0)
- 4 /NodeList/1/DeviceList/0/$ns3::CsmaNetDevice/TxQueue/Dequeue ns3::EthernetHeader ( length/type=0x806, source=00:00:00:00:00:02, destination=ff:ff:ff:ff:ff:ff) ns3::ArpHeader (request source mac: 00-06-00:00:00:00:00:02 source ipv4: 10.1.1.2 dest ipv4: 10.1.1.6) Payload (size=18) ns3::EthernetTrailer (fcs=0)
+ 5 /NodeList/0/DeviceList/0/$ns3::CsmaNetDevice/TxQueue/Enqueue ns3::EthernetHeader ( length/type=0x806, source=00:00:00:00:00:01, destination=ff:ff:ff:ff:ff:ff) ns3::ArpHeader (request source mac: 00-06-00:00:00:00:00:01 source ipv4: 10.1.1.1 dest ipv4: 10.1.1.5) Payload (size=18) ns3::EthernetTrailer (fcs=0)
- 5 /NodeList/0/DeviceList/0/$ns3::CsmaNetDevice/TxQueue/Dequeue ns3::EthernetHeader ( length/type=0x806, source=00:00:00:00:00:01, destination=ff:ff:ff:ff:ff:ff) ns3::ArpHeader (request source mac: 00-06-00:00:00:00:00:01 source ipv4: 10.1.1.1 dest ipv4: 10.1.1.5) Payload (size=18) ns3::EthernetTrailer (fcs=0)
+ 5 /NodeList/1/DeviceList/0/$ns3::CsmaNetDevice/TxQueue/Enqueue ns3::EthernetHeader ( length/type=0x806, source=00:00:00:00:00:02, destination=ff:ff:ff:ff:ff:ff) ns3::ArpHeader (request source mac: 00-06-00:00:00:00:00:02 source ipv4: 10.1.1.2 dest ipv4: 10.1.1.6) Payload (size=18) ns3::EthernetTrailer (fcs=0)
- 5 /NodeList/1/DeviceList/0/$ns3::CsmaNetDevice/TxQueue/Dequeue ns3::EthernetHeader ( length/type=0x806, source=00:00:00:00:00:02, destination=ff:ff:ff:ff:ff:ff) ns3::ArpHeader (request source mac: 00-06-00:00:00:00:00:02 source ipv4: 10.1.1.2 dest ipv4: 10.1.1.6) Payload (size=18) ns3::EthernetTrailer (fcs=0)
+ 32.0309 /NodeList/3/DeviceList/0/$ns3::CsmaNetDevice/TxQueue/Enqueue ns3::EthernetHeader ( length/type=0x806, source=00:00:00:00:00:04, destination=ff:ff:ff:ff:ff:ff) ns3::ArpHeader (request source mac: 00-06-00:00:00:00:00:04 source ipv4: 10.1.1.4 dest ipv4: 10.1.1.8) Payload (size=18) ns3::EthernetTrailer (fcs=0)
- 32.0309 /NodeList/3/DeviceList/0/$ns3::CsmaNetDevice/TxQueue/Dequeue ns3::EthernetHeader ( length/type=0x806, source=00:00:00:00:00:04, destination=ff:ff:ff:ff:ff:ff) ns3::ArpHeader (request source mac: 00-06-00:00:00:00:00:04 source ipv4: 10.1.1.4 dest ipv4: 10.1.1.8) Payload (size=18) ns3::EthernetTrailer (fcs=0)
+ 33.0279 /NodeList/3/DeviceList/0/$ns3::CsmaNetDevice/TxQueue/Enqueue ns3::EthernetHeader ( length/type=0x806, source=00:00:00:00:00:04, destination=ff:ff:ff:ff:ff:ff) ns3::ArpHeader (request source mac: 00-06-00:00:00:00:00:04 source ipv4: 10.1.1.4 dest ipv4: 10.1.1.8) Payload (size=18) ns3::EthernetTrailer (fcs=0)
- 33.0279 /NodeList/3/DeviceList/0/$ns3::CsmaNetDevice/TxQueue/Dequeue ns3::EthernetHeader ( length/type=0x806, source=00:00:00:00:00:04, destination=ff:ff:ff:ff:ff:ff) ns3::ArpHeader (request source mac: 00-06-00:00:00:00:00:04 source ipv4: 10.1.1.4 dest ipv4: 10.1.1.8) Payload (size=18) ns3::EthernetTrailer (fcs=0)
+ 34.0279 /NodeList/3/DeviceList/0/$ns3::CsmaNetDevice/TxQueue/Enqueue ns3::EthernetHeader ( length/type=0x806, source=00:00:00:00:00:04, destination=ff:ff:ff:ff:ff:ff) ns3::ArpHeader (request source mac: 00-06-00:00:00:00:00:04 source ipv4: 10.1.1.4 dest ipv4: 10.1.1.8) Payload (size=18) ns3::EthernetTrailer (fcs=0)
- 34.0279 /NodeList/3/DeviceList/0/$ns3::CsmaNetDevice/TxQueue/Dequeue ns3::EthernetHeader ( length/type=0x806, source=00:00:00:00:00:04, destination=ff:ff:ff:ff:ff:ff) ns3::ArpHeader (request source mac: 00-06-00:00:00:00:00:04 source ipv4: 10.1.1.4 dest ipv4: 10.1.1.8) Payload (size=18) ns3::EthernetTrailer (fcs=0)
+ 35.0279 /NodeList/3/DeviceList/0/$ns3::CsmaNetDevice/TxQueue/Enqueue ns3::EthernetHeader ( length/type=0x806, source=00:00:00:00:00:04, destination=ff:ff:ff:ff:ff:ff) ns3::ArpHeader (request source mac: 00-06-00:00:00:00:00:04 source ipv4: 10.1.1.4 dest ipv4: 10.1.1.8) Payload (size=18) ns3::EthernetTrailer (fcs=0)