+ 2.002 /NodeList/1/DeviceList/0/$ns3::CsmaNetDevice/TxQueue/Enqueue ns3::EthernetHeader ( length/type=0x806, source=00:00:00:00:00:02, destination=ff:ff:ff:ff:ff:ff) ns3::ArpHeader (request source mac: 00-06-00:00:00:00:00:02 source ipv4: 10.1.1.2 dest ipv4: 10.1.1.6) Payload (size=18) ns3::EthernetTrailer (fcs=0)
- 2.002 /NodeList/1/DeviceList/0/$ns3::CsmaNetDevice/TxQueue/Dequeue ns3::EthernetHeader ( length/type=0x806, source=00:00:00:00:00:02, destination=ff:ff:ff:ff:ff:ff) ns3::ArpHeader (request source mac: 00-06-00:00:00:00:00:02 source ipv4: 10.1.1.2 dest ipv4: 10.1.1.6) Payload (size=18) ns3::EthernetTrailer (fcs=0)
+ 2.004 /NodeList/6/DeviceList/0/$ns3::CsmaNetDevice/TxQueue/Enqueue ns3::EthernetHeader ( length/type=0x806, source=00:00:00:00:00:07, destination=ff:ff:ff:ff:ff:ff) ns3::ArpHeader (request source mac: 00-06-00:00:00:00:00:07 source ipv4: 10.1.1.7 dest ipv4: 10.1.1.3) Payload (size=18) ns3::EthernetTrailer (fcs=0)
- 2.004 /NodeList/6/DeviceList/0/$ns3::CsmaNetDevice/TxQueue/Dequeue ns3::EthernetHeader ( length/type=0x806, source=00:00:00:00:00:07, destination=ff:ff:ff:ff:ff:ff) ns3::ArpHeader (request source mac: 00-06-00:00:00:00:00:07 source ipv4: 10.1.1.7 dest ipv4: 10.1.1.3) Payload (size=18) ns3::EthernetTrailer (fcs=0)
r 2.0045 /NodeList/0/DeviceList/0/$ns3::CsmaNetDevice/MacRx ns3::EthernetHeader ( length/type=0x806, source=00:00:00:00:00:02, destination=ff:ff:ff:ff:ff:ff) ns3::ArpHeader (request source mac: 00-06-00:00:00:00:00:02 source ipv4: 10.1.1.2 dest ipv4: 10.1.1.6) Payload (size=18) ns3::EthernetTrailer (fcs=0)
r 2.0045 /NodeList/2/DeviceList/0/$ns3::CsmaNetDevice/MacRx ns3::EthernetHeader ( length/type=0x806, source=00:00:00:00:00:02, destination=ff:ff:ff:ff:ff:ff) ns3::ArpHeader (request source mac: 00-06-00:00:00:00:00:02 source ipv4: 10.1.1.2 dest ipv4: 10.1.1.6) Payload (size=18) ns3::EthernetTrailer (fcs=0)
r 2.0045 /NodeList/3/DeviceList/0/$ns3::CsmaNetDevice/MacRx ns3::EthernetHeader ( length/type=0x806, source=00:00:00:00:00:02, destination=ff:ff:ff:ff:ff:ff) ns3::ArpHeader (request source mac: 00-06-00:00:00:00:00:02 source ipv4: 10.1.1.2 dest ipv4: 10.1.1.6) Payload (size=18) ns3::EthernetTrailer (fcs=0)
r 2.0045 /NodeList/4/DeviceList/0/$ns3::CsmaNetDevice/MacRx ns3::EthernetHeader ( length/type=0x806, source=00:00:00:00:00:02, destination=ff:ff:ff:ff:ff:ff) ns3::ArpHeader (request source mac: 00-06-00:00:00:00:00:02 source ipv4: 10.1.1.2 dest ipv4: 10.1.1.6) Payload (size=18) ns3::EthernetTrailer (fcs=0)
r 2.0045 /NodeList/5/DeviceList/0/$ns3::CsmaNetDevice/MacRx ns3::EthernetHeader ( length/type=0x806, source=00:00:00:00:00:02, destination=ff:ff:ff:ff:ff:ff) ns3::ArpHeader (request source mac: 00-06-00:00:00:00:00:02 source ipv4: 10.1.1.2 dest ipv4: 10.1.1.6) Payload (size=18) ns3::EthernetTrailer (fcs=0)
+ 2.0045 /NodeList/5/DeviceList/0/$ns3::CsmaNetDevice/TxQueue/Enqueue ns3::EthernetHeader ( length/type=0x806, source=00:00:00:00:00:06, destination=00:00:00:00:00:02) ns3::ArpHeader (reply source mac: 00-06-00:00:00:00:00:06 source ipv4: 10.1.1.6 dest mac: 00-06-00:00:00:00:00:02 dest ipv4: 10.1.1.2) Payload (size=18) ns3::EthernetTrailer (fcs=0)
- 2.0045 /NodeList/5/DeviceList/0/$ns3::CsmaNetDevice/TxQueue/Dequeue ns3::EthernetHeader ( length/type=0x806, source=00:00:00:00:00:06, destination=00:00:00:00:00:02) ns3::ArpHeader (reply source mac: 00-06-00:00:00:00:00:06 source ipv4: 10.1.1.6 dest mac: 00-06-00:00:00:00:00:02 dest ipv4: 10.1.1.2) Payload (size=18) ns3::EthernetTrailer (fcs=0)
r 2.0045 /NodeList/6/DeviceList/0/$ns3::CsmaNetDevice/MacRx ns3::EthernetHeader ( length/type=0x806, source=00:00:00:00:00:02, destination=ff:ff:ff:ff:ff:ff) ns3::ArpHeader (request source mac: 00-06-00:00:00:00:00:02 source ipv4: 10.1.1.2 dest ipv4: 10.1.1.6) Payload (size=18) ns3::EthernetTrailer (fcs=0)
r 2.0045 /NodeList/7/DeviceList/0/$ns3::CsmaNetDevice/MacRx ns3::EthernetHeader ( length/type=0x806, source=00:00:00:00:00:02, destination=ff:ff:ff:ff:ff:ff) ns3::ArpHeader (request source mac: 00-06-00:00:00:00:00:02 source ipv4: 10.1.1.2 dest ipv4: 10.1.1.6) Payload (size=18) ns3::EthernetTrailer (fcs=0)
+ 2.006 /NodeList/0/DeviceList/0/$ns3::CsmaNetDevice/TxQueue/Enqueue ns3::EthernetHeader ( length/type=0x806, source=00:00:00:00:00:01, destination=ff:ff:ff:ff:ff:ff) ns3::ArpHeader (request source mac: 00-06-00:00:00:00:00:01 source ipv4: 10.1.1.1 dest ipv4: 10.1.1.5) Payload (size=18) ns3::EthernetTrailer (fcs=0)
- 2.006 /NodeList/0/DeviceList/0/$ns3::CsmaNetDevice/TxQueue/Dequeue ns3::EthernetHeader ( length/type=0x806, source=00:00:00:00:00:01, destination=ff:ff:ff:ff:ff:ff) ns3::ArpHeader (request source mac: 00-06-00:00:00:00:00:01 source ipv4: 10.1.1.1 dest ipv4: 10.1.1.5) Payload (size=18) ns3::EthernetTrailer (fcs=0)
+ 2.007 /NodeList/7/DeviceList/0/$ns3::CsmaNetDevice/TxQueue/Enqueue ns3::EthernetHeader ( length/type=0x806, source=00:00:00:00:00:08, destination=ff:ff:ff:ff:ff:ff) ns3::ArpHeader (request source mac: 00-06-00:00:00:00:00:08 source ipv4: 10.1.1.8 dest ipv4: 10.1.1.4) Payload (size=18) ns3::EthernetTrailer (fcs=0)
- 2.007 /NodeList/7/DeviceList/0/$ns3::CsmaNetDevice/TxQueue/Dequeue ns3::EthernetHeader ( length/type=0x806, source=00:00:00:00:00:08, destination=ff:ff:ff:ff:ff:ff) ns3::ArpHeader (request source mac: 00-06-00:00:00:00:00:08 source ipv4: 10.1.1.8 dest ipv4: 10.1.1.4) Payload (size=18) ns3::EthernetTrailer (fcs=0)
r 2.007 /NodeList/1/DeviceList/0/$ns3::CsmaNetDevice/MacRx ns3::EthernetHeader ( length/type=0x806, source=00:00:00:00:00:06, destination=00:00:00:00:00:02) ns3::ArpHeader (reply source mac: 00-06-00:00:00:00:00:06 source ipv4: 10.1.1.6 dest mac: 00-06-00:00:00:00:00:02 dest ipv4: 10.1.1.2) Payload (size=18) ns3::EthernetTrailer (fcs=0)
+ 2.007 /NodeList/1/DeviceList/0/$ns3::CsmaNetDevice/TxQueue/Enqueue ns3::EthernetHeader ( length/type=0x800, source=00:00:00:00:00:02, destination=00:00:00:00:00:06) ns3::Ipv4Header (tos 0x0 DSCP Default ECN Not-ECT ttl 64 id 0 protocol 17 offset (bytes) 0 flags [MF] length: 1500 10.1.1.2 > 10.1.1.6) ns3::UdpHeader (length: 32776 49153 > 9) Payload Fragment [0:1472] ns3::EthernetTrailer (fcs=0)
- 2.007 /NodeList/1/DeviceList/0/$ns3::CsmaNetDevice/TxQueue/Dequeue ns3::EthernetHeader ( length/type=0x800, source=00:00:00:00:00:02, destination=00:00:00:00:00:06) ns3::Ipv4Header (tos 0x0 DSCP Default ECN Not-ECT ttl 64 id 0 protocol 17 offset (bytes) 0 flags [MF] length: 1500 10.1.1.2 > 10.1.1.6) ns3::UdpHeader (length: 32776 49153 > 9) Payload Fragment [0:1472] ns3::EthernetTrailer (fcs=0)
+ 2.007 /NodeList/1/DeviceList/0/$ns3::CsmaNetDevice/TxQueue/Enqueue ns3::EthernetHeader ( length/type=0x800, source=00:00:00:00:00:02, destination=00:00:00:00:00:06) ns3::Ipv4Header (tos 0x0 DSCP Default ECN Not-ECT ttl 64 id 0 protocol 17 offset (bytes) 1480 flags [MF] length: 1500 10.1.1.2 > 10.1.1.6) Payload Fragment [1472:2952] ns3::EthernetTrailer (fcs=0)
+ 2.007 /NodeList/1/DeviceList/0/$ns3::CsmaNetDevice/TxQueue/Enqueue ns3::EthernetHeader ( length/type=0x800, source=00:00:00:00:00:02, destination=00:00:00:00:00:06) ns3::Ipv4Header (tos 0x0 DSCP Default ECN Not-ECT ttl 64 id 0 protocol 17 offset (bytes) 2960 flags [MF] length: 1500 10.1.1.2 > 10.1.1.6) Payload Fragment [2952:4432] ns3::EthernetTrailer (fcs=0)
r 2.0095 /NodeList/0/DeviceList/0/$ns3::CsmaNetDevice/MacRx ns3::EthernetHeader ( length/type=0x806, source=00:00:00:00:00:08, destination=ff:ff:ff:ff:ff:ff) ns3::ArpHeader (request source mac: 00-06-00:00:00:00:00:08 source ipv4: 10.1.1.8 dest ipv4: 10.1.1.4) Payload (size=18) ns3::EthernetTrailer (fcs=0)
r 2.0095 /NodeList/1/DeviceList/0/$ns3::CsmaNetDevice/MacRx ns3::EthernetHeader ( length/type=0x806, source=00:00:00:00:00:08, destination=ff:ff:ff:ff:ff:ff) ns3::ArpHeader (request source mac: 00-06-00:00:00:00:00:08 source ipv4: 10.1.1.8 dest ipv4: 10.1.1.4) Payload (size=18) ns3::EthernetTrailer (fcs=0)
r 2.0095 /NodeList/2/DeviceList/0/$ns3::CsmaNetDevice/MacRx ns3::EthernetHeader ( length/type=0x806, source=00:00:00:00:00:08, destination=ff:ff:ff:ff:ff:ff) ns3::ArpHeader (request source mac: 00-06-00:00:00:00:00:08 source ipv4: 10.1.1.8 dest ipv4: 10.1.1.4) Payload (size=18) ns3::EthernetTrailer (fcs=0)
r 2.0095 /NodeList/3/DeviceList/0/$ns3::CsmaNetDevice/MacRx ns3::EthernetHeader ( length/type=0x806, source=00:00:00:00:00:08, destination=ff:ff:ff:ff:ff:ff) ns3::ArpHeader (request source mac: 00-06-00:00:00:00:00:08 source ipv4: 10.1.1.8 dest ipv4: 10.1.1.4) Payload (size=18) ns3::EthernetTrailer (fcs=0)
+ 2.0095 /NodeList/3/DeviceList/0/$ns3::CsmaNetDevice/TxQueue/Enqueue ns3::EthernetHeader ( length/type=0x806, source=00:00:00:00:00:04, destination=00:00:00:00:00:08) ns3::ArpHeader (reply source mac: 00-06-00:00:00:00:00:04 source ipv4: 10.1.1.4 dest mac: 00-06-00:00:00:00:00:08 dest ipv4: 10.1.1.8) Payload (size=18) ns3::EthernetTrailer (fcs=0)
- 2.0095 /NodeList/3/DeviceList/0/$ns3::CsmaNetDevice/TxQueue/Dequeue ns3::EthernetHeader ( length/type=0x806, source=00:00:00:00:00:04, destination=00:00:00:00:00:08) ns3::ArpHeader (reply source mac: 00-06-00:00:00:00:00:04 source ipv4: 10.1.1.4 dest mac: 00-06-00:00:00:00:00:08 dest ipv4: 10.1.1.8) Payload (size=18) ns3::EthernetTrailer (fcs=0)
r 2.0095 /NodeList/4/DeviceList/0/$ns3::CsmaNetDevice/MacRx ns3::EthernetHeader ( length/type=0x806, source=00:00:00:00:00:08, destination=ff:ff:ff:ff:ff:ff) ns3::ArpHeader (request source mac: 00-06-00:00:00:00:00:08 source ipv4: 10.1.1.8 dest ipv4: 10.1.1.4) Payload (size=18) ns3::EthernetTrailer (fcs=0)
r 2.0095 /NodeList/5/DeviceList/0/$ns3::CsmaNetDevice/MacRx ns3::EthernetHeader ( length/type=0x806, source=00:00:00:00:00:08, destination=ff:ff:ff:ff:ff:ff) ns3::ArpHeader (request source mac: 00-06-00:00:00:00:00:08 source ipv4: 10.1.1.8 dest ipv4: 10.1.1.4) Payload (size=18) ns3::EthernetTrailer (fcs=0)
r 2.0095 /NodeList/6/DeviceList/0/$ns3::CsmaNetDevice/MacRx ns3::EthernetHeader ( length/type=0x806, source=00:00:00:00:00:08, destination=ff:ff:ff:ff:ff:ff) ns3::ArpHeader (request source mac: 00-06-00:00:00:00:00:08 source ipv4: 10.1.1.8 dest ipv4: 10.1.1.4) Payload (size=18) ns3::EthernetTrailer (fcs=0)
r 2.012 /NodeList/7/DeviceList/0/$ns3::CsmaNetDevice/MacRx ns3::EthernetHeader ( length/type=0x806, source=00:00:00:00:00:04, destination=00:00:00:00:00:08) ns3::ArpHeader (reply source mac: 00-06-00:00:00:00:00:04 source ipv4: 10.1.1.4 dest mac: 00-06-00:00:00:00:00:08 dest ipv4: 10.1.1.8) Payload (size=18) ns3::EthernetTrailer (fcs=0)
+ 2.012 /NodeList/7/DeviceList/0/$ns3::CsmaNetDevice/TxQueue/Enqueue ns3::EthernetHeader ( length/type=0x800, source=00:00:00:00:00:08, destination=00:00:00:00:00:04) ns3::Ipv4Header (tos 0x0 DSCP Default ECN Not-ECT ttl 64 id 0 protocol 17 offset (bytes) 0 flags [MF] length: 1500 10.1.1.8 > 10.1.1.4) ns3::UdpHeader (length: 32776 49153 > 9) Payload Fragment [0:1472] ns3::EthernetTrailer (fcs=0)
- 2.012 /NodeList/7/DeviceList/0/$ns3::CsmaNetDevice/TxQueue/Dequeue ns3::EthernetHeader ( length/type=0x800, source=00:00:00:00:00:08, destination=00:00:00:00:00:04) ns3::Ipv4Header (tos 0x0 DSCP Default ECN Not-ECT ttl 64 id 0 protocol 17 offset (bytes) 0 flags [MF] length: 1500 10.1.1.8 > 10.1.1.4) ns3::UdpHeader (length: 32776 49153 > 9) Payload Fragment [0:1472] ns3::EthernetTrailer (fcs=0)
+ 2.012 /NodeList/7/DeviceList/0/$ns3::CsmaNetDevice/TxQueue/Enqueue ns3::EthernetHeader ( length/type=0x800, source=00:00:00:00:00:08, destination=00:00:00:00:00:04) ns3::Ipv4Header (tos 0x0 DSCP Default ECN Not-ECT ttl 64 id 0 protocol 17 offset (bytes) 1480 flags [MF] length: 1500 10.1.1.8 > 10.1.1.4) Payload Fragment [1472:2952] ns3::EthernetTrailer (fcs=0)
+ 2.012 /NodeList/7/DeviceList/0/$ns3::CsmaNetDevice/TxQueue/Enqueue ns3::EthernetHeader ( length/type=0x800, source=00:00:00:00:00:08, destination=00:00:00:00:00:04) ns3::Ipv4Header (tos 0x0 DSCP Default ECN Not-ECT ttl 64 id 0 protocol 17 offset (bytes) 2960 flags [MF] length: 1500 10.1.1.8 > 10.1.1.4) Payload Fragment [2952:4432] ns3::EthernetTrailer (fcs=0)
- 2.02396 /NodeList/7/DeviceList/0/$ns3::CsmaNetDevice/TxQueue/Dequeue ns3::EthernetHeader ( length/type=0x800, source=00:00:00:00:00:08, destination=00:00:00:00:00:04) ns3::Ipv4Header (tos 0x0 DSCP Default ECN Not-ECT ttl 64 id 0 protocol 17 offset (bytes) 1480 flags [MF] length: 1500 10.1.1.8 > 10.1.1.4) Payload Fragment [1472:2952] ns3::EthernetTrailer (fcs=0)
r 2.02586 /NodeList/3/DeviceList/0/$ns3::CsmaNetDevice/MacRx ns3::EthernetHeader ( length/type=0x800, source=00:00:00:00:00:08, destination=00:00:00:00:00:04) ns3::Ipv4Header (tos 0x0 DSCP Default ECN Not-ECT ttl 64 id 0 protocol 17 offset (bytes) 0 flags [MF] length: 1500 10.1.1.8 > 10.1.1.4) ns3::UdpHeader (length: 32776 49153 > 9) Payload Fragment [0:1472] ns3::EthernetTrailer (fcs=0)
r 2.02845 /NodeList/0/DeviceList/0/$ns3::CsmaNetDevice/MacRx ns3::EthernetHeader ( length/type=0x806, source=00:00:00:00:00:07, destination=ff:ff:ff:ff:ff:ff) ns3::ArpHeader (request source mac: 00-06-00:00:00:00:00:07 source ipv4: 10.1.1.7 dest ipv4: 10.1.1.3) Payload (size=18) ns3::EthernetTrailer (fcs=0)
r 2.02845 /NodeList/1/DeviceList/0/$ns3::CsmaNetDevice/MacRx ns3::EthernetHeader ( length/type=0x806, source=00:00:00:00:00:07, destination=ff:ff:ff:ff:ff:ff) ns3::ArpHeader (request source mac: 00-06-00:00:00:00:00:07 source ipv4: 10.1.1.7 dest ipv4: 10.1.1.3) Payload (size=18) ns3::EthernetTrailer (fcs=0)
r 2.02845 /NodeList/2/DeviceList/0/$ns3::CsmaNetDevice/MacRx ns3::EthernetHeader ( length/type=0x806, source=00:00:00:00:00:07, destination=ff:ff:ff:ff:ff:ff) ns3::ArpHeader (request source mac: 00-06-00:00:00:00:00:07 source ipv4: 10.1.1.7 dest ipv4: 10.1.1.3) Payload (size=18) ns3::EthernetTrailer (fcs=0)
+ 2.02845 /NodeList/2/DeviceList/0/$ns3::CsmaNetDevice/TxQueue/Enqueue ns3::EthernetHeader ( length/type=0x806, source=00:00:00:00:00:03, destination=00:00:00:00:00:07) ns3::ArpHeader (reply source mac: 00-06-00:00:00:00:00:03 source ipv4: 10.1.1.3 dest mac: 00-06-00:00:00:00:00:07 dest ipv4: 10.1.1.7) Payload (size=18) ns3::EthernetTrailer (fcs=0)
- 2.02845 /NodeList/2/DeviceList/0/$ns3::CsmaNetDevice/TxQueue/Dequeue ns3::EthernetHeader ( length/type=0x806, source=00:00:00:00:00:03, destination=00:00:00:00:00:07) ns3::ArpHeader (reply source mac: 00-06-00:00:00:00:00:03 source ipv4: 10.1.1.3 dest mac: 00-06-00:00:00:00:00:07 dest ipv4: 10.1.1.7) Payload (size=18) ns3::EthernetTrailer (fcs=0)
r 2.02845 /NodeList/3/DeviceList/0/$ns3::CsmaNetDevice/MacRx ns3::EthernetHeader ( length/type=0x806, source=00:00:00:00:00:07, destination=ff:ff:ff:ff:ff:ff) ns3::ArpHeader (request source mac: 00-06-00:00:00:00:00:07 source ipv4: 10.1.1.7 dest ipv4: 10.1.1.3) Payload (size=18) ns3::EthernetTrailer (fcs=0)
r 2.02845 /NodeList/4/DeviceList/0/$ns3::CsmaNetDevice/MacRx ns3::EthernetHeader ( length/type=0x806, source=00:00:00:00:00:07, destination=ff:ff:ff:ff:ff:ff) ns3::ArpHeader (request source mac: 00-06-00:00:00:00:00:07 source ipv4: 10.1.1.7 dest ipv4: 10.1.1.3) Payload (size=18) ns3::EthernetTrailer (fcs=0)
r 2.02845 /NodeList/5/DeviceList/0/$ns3::CsmaNetDevice/MacRx ns3::EthernetHeader ( length/type=0x806, source=00:00:00:00:00:07, destination=ff:ff:ff:ff:ff:ff) ns3::ArpHeader (request source mac: 00-06-00:00:00:00:00:07 source ipv4: 10.1.1.7 dest ipv4: 10.1.1.3) Payload (size=18) ns3::EthernetTrailer (fcs=0)
r 2.02845 /NodeList/7/DeviceList/0/$ns3::CsmaNetDevice/MacRx ns3::EthernetHeader ( length/type=0x806, source=00:00:00:00:00:07, destination=ff:ff:ff:ff:ff:ff) ns3::ArpHeader (request source mac: 00-06-00:00:00:00:00:07 source ipv4: 10.1.1.7 dest ipv4: 10.1.1.3) Payload (size=18) ns3::EthernetTrailer (fcs=0)
r 2.03095 /NodeList/6/DeviceList/0/$ns3::CsmaNetDevice/MacRx ns3::EthernetHeader ( length/type=0x806, source=00:00:00:00:00:03, destination=00:00:00:00:00:07) ns3::ArpHeader (reply source mac: 00-06-00:00:00:00:00:03 source ipv4: 10.1.1.3 dest mac: 00-06-00:00:00:00:00:07 dest ipv4: 10.1.1.7) Payload (size=18) ns3::EthernetTrailer (fcs=0)
+ 2.03095 /NodeList/6/DeviceList/0/$ns3::CsmaNetDevice/TxQueue/Enqueue ns3::EthernetHeader ( length/type=0x800, source=00:00:00:00:00:07, destination=00:00:00:00:00:03) ns3::Ipv4Header (tos 0x0 DSCP Default ECN Not-ECT ttl 64 id 0 protocol 17 offset (bytes) 0 flags [MF] length: 1500 10.1.1.7 > 10.1.1.3) ns3::UdpHeader (length: 32776 49153 > 9) Payload Fragment [0:1472] ns3::EthernetTrailer (fcs=0)
- 2.03095 /NodeList/6/DeviceList/0/$ns3::CsmaNetDevice/TxQueue/Dequeue ns3::EthernetHeader ( length/type=0x800, source=00:00:00:00:00:07, destination=00:00:00:00:00:03) ns3::Ipv4Header (tos 0x0 DSCP Default ECN Not-ECT ttl 64 id 0 protocol 17 offset (bytes) 0 flags [MF] length: 1500 10.1.1.7 > 10.1.1.3) ns3::UdpHeader (length: 32776 49153 > 9) Payload Fragment [0:1472] ns3::EthernetTrailer (fcs=0)
+ 2.03095 /NodeList/6/DeviceList/0/$ns3::CsmaNetDevice/TxQueue/Enqueue ns3::EthernetHeader ( length/type=0x800, source=00:00:00:00:00:07, destination=00:00:00:00:00:03) ns3::Ipv4Header (tos 0x0 DSCP Default ECN Not-ECT ttl 64 id 0 protocol 17 offset (bytes) 1480 flags [MF] length: 1500 10.1.1.7 > 10.1.1.3) Payload Fragment [1472:2952] ns3::EthernetTrailer (fcs=0)
+ 2.03095 /NodeList/6/DeviceList/0/$ns3::CsmaNetDevice/TxQueue/Enqueue ns3::EthernetHeader ( length/type=0x800, source=00:00:00:00:00:07, destination=00:00:00:00:00:03) ns3::Ipv4Header (tos 0x0 DSCP Default ECN Not-ECT ttl 64 id 0 protocol 17 offset (bytes) 2960 flags [MF] length: 1500 10.1.1.7 > 10.1.1.3) Payload Fragment [2952:4432] ns3::EthernetTrailer (fcs=0)
- 2.04291 /NodeList/6/DeviceList/0/$ns3::CsmaNetDevice/TxQueue/Dequeue ns3::EthernetHeader ( length/type=0x800, source=00:00:00:00:00:07, destination=00:00:00:00:00:03) ns3::Ipv4Header (tos 0x0 DSCP Default ECN Not-ECT ttl 64 id 0 protocol 17 offset (bytes) 1480 flags [MF] length: 1500 10.1.1.7 > 10.1.1.3) Payload Fragment [1472:2952] ns3::EthernetTrailer (fcs=0)
r 2.04481 /NodeList/2/DeviceList/0/$ns3::CsmaNetDevice/MacRx ns3::EthernetHeader ( length/type=0x800, source=00:00:00:00:00:07, destination=00:00:00:00:00:03) ns3::Ipv4Header (tos 0x0 DSCP Default ECN Not-ECT ttl 64 id 0 protocol 17 offset (bytes) 0 flags [MF] length: 1500 10.1.1.7 > 10.1.1.3) ns3::UdpHeader (length: 32776 49153 > 9) Payload Fragment [0:1472] ns3::EthernetTrailer (fcs=0)
r 2.04737 /NodeList/1/DeviceList/0/$ns3::CsmaNetDevice/MacRx ns3::EthernetHeader ( length/type=0x806, source=00:00:00:00:00:01, destination=ff:ff:ff:ff:ff:ff) ns3::ArpHeader (request source mac: 00-06-00:00:00:00:00:01 source ipv4: 10.1.1.1 dest ipv4: 10.1.1.5) Payload (size=18) ns3::EthernetTrailer (fcs=0)
r 2.04737 /NodeList/2/DeviceList/0/$ns3::CsmaNetDevice/MacRx ns3::EthernetHeader ( length/type=0x806, source=00:00:00:00:00:01, destination=ff:ff:ff:ff:ff:ff) ns3::ArpHeader (request source mac: 00-06-00:00:00:00:00:01 source ipv4: 10.1.1.1 dest ipv4: 10.1.1.5) Payload (size=18) ns3::EthernetTrailer (fcs=0)
r 2.04737 /NodeList/3/DeviceList/0/$ns3::CsmaNetDevice/MacRx ns3::EthernetHeader ( length/type=0x806, source=00:00:00:00:00:01, destination=ff:ff:ff:ff:ff:ff) ns3::ArpHeader (request source mac: 00-06-00:00:00:00:00:01 source ipv4: 10.1.1.1 dest ipv4: 10.1.1.5) Payload (size=18) ns3::EthernetTrailer (fcs=0)
r 2.04737 /NodeList/4/DeviceList/0/$ns3::CsmaNetDevice/MacRx ns3::EthernetHeader ( length/type=0x806, source=00:00:00:00:00:01, destination=ff:ff:ff:ff:ff:ff) ns3::ArpHeader (request source mac: 00-06-00:00:00:00:00:01 source ipv4: 10.1.1.1 dest ipv4: 10.1.1.5) Payload (size=18) ns3::EthernetTrailer (fcs=0)
+ 2.04737 /NodeList/4/DeviceList/0/$ns3::CsmaNetDevice/TxQueue/Enqueue ns3::EthernetHeader ( length/type=0x806, source=00:00:00:00:00:05, destination=00:00:00:00:00:01) ns3::ArpHeader (reply source mac: 00-06-00:00:00:00:00:05 source ipv4: 10.1.1.5 dest mac: 00-06-00:00:00:00:00:01 dest ipv4: 10.1.1.1) Payload (size=18) ns3::EthernetTrailer (fcs=0)
- 2.04737 /NodeList/4/DeviceList/0/$ns3::CsmaNetDevice/TxQueue/Dequeue ns3::EthernetHeader ( length/type=0x806, source=00:00:00:00:00:05, destination=00:00:00:00:00:01) ns3::ArpHeader (reply source mac: 00-06-00:00:00:00:00:05 source ipv4: 10.1.1.5 dest mac: 00-06-00:00:00:00:00:01 dest ipv4: 10.1.1.1) Payload (size=18) ns3::EthernetTrailer (fcs=0)
r 2.04737 /NodeList/5/DeviceList/0/$ns3::CsmaNetDevice/MacRx ns3::EthernetHeader ( length/type=0x806, source=00:00:00:00:00:01, destination=ff:ff:ff:ff:ff:ff) ns3::ArpHeader (request source mac: 00-06-00:00:00:00:00:01 source ipv4: 10.1.1.1 dest ipv4: 10.1.1.5) Payload (size=18) ns3::EthernetTrailer (fcs=0)
r 2.04737 /NodeList/6/DeviceList/0/$ns3::CsmaNetDevice/MacRx ns3::EthernetHeader ( length/type=0x806, source=00:00:00:00:00:01, destination=ff:ff:ff:ff:ff:ff) ns3::ArpHeader (request source mac: 00-06-00:00:00:00:00:01 source ipv4: 10.1.1.1 dest ipv4: 10.1.1.5) Payload (size=18) ns3::EthernetTrailer (fcs=0)
r 2.04737 /NodeList/7/DeviceList/0/$ns3::CsmaNetDevice/MacRx ns3::EthernetHeader ( length/type=0x806, source=00:00:00:00:00:01, destination=ff:ff:ff:ff:ff:ff) ns3::ArpHeader (request source mac: 00-06-00:00:00:00:00:01 source ipv4: 10.1.1.1 dest ipv4: 10.1.1.5) Payload (size=18) ns3::EthernetTrailer (fcs=0)
r 2.04987 /NodeList/0/DeviceList/0/$ns3::CsmaNetDevice/MacRx ns3::EthernetHeader ( length/type=0x806, source=00:00:00:00:00:05, destination=00:00:00:00:00:01) ns3::ArpHeader (reply source mac: 00-06-00:00:00:00:00:05 source ipv4: 10.1.1.5 dest mac: 00-06-00:00:00:00:00:01 dest ipv4: 10.1.1.1) Payload (size=18) ns3::EthernetTrailer (fcs=0)
+ 2.04987 /NodeList/0/DeviceList/0/$ns3::CsmaNetDevice/TxQueue/Enqueue ns3::EthernetHeader ( length/type=0x800, source=00:00:00:00:00:01, destination=00:00:00:00:00:05) ns3::Ipv4Header (tos 0x0 DSCP Default ECN Not-ECT ttl 64 id 0 protocol 17 offset (bytes) 0 flags [MF] length: 1500 10.1.1.1 > 10.1.1.5) ns3::UdpHeader (length: 32776 49153 > 9) Payload Fragment [0:1472] ns3::EthernetTrailer (fcs=0)
- 2.04987 /NodeList/0/DeviceList/0/$ns3::CsmaNetDevice/TxQueue/Dequeue ns3::EthernetHeader ( length/type=0x800, source=00:00:00:00:00:01, destination=00:00:00:00:00:05) ns3::Ipv4Header (tos 0x0 DSCP Default ECN Not-ECT ttl 64 id 0 protocol 17 offset (bytes) 0 flags [MF] length: 1500 10.1.1.1 > 10.1.1.5) ns3::UdpHeader (length: 32776 49153 > 9) Payload Fragment [0:1472] ns3::EthernetTrailer (fcs=0)
+ 2.04987 /NodeList/0/DeviceList/0/$ns3::CsmaNetDevice/TxQueue/Enqueue ns3::EthernetHeader ( length/type=0x800, source=00:00:00:00:00:01, destination=00:00:00:00:00:05) ns3::Ipv4Header (tos 0x0 DSCP Default ECN Not-ECT ttl 64 id 0 protocol 17 offset (bytes) 1480 flags [MF] length: 1500 10.1.1.1 > 10.1.1.5) Payload Fragment [1472:2952] ns3::EthernetTrailer (fcs=0)
+ 2.04987 /NodeList/0/DeviceList/0/$ns3::CsmaNetDevice/TxQueue/Enqueue ns3::EthernetHeader ( length/type=0x800, source=00:00:00:00:00:01, destination=00:00:00:00:00:05) ns3::Ipv4Header (tos 0x0 DSCP Default ECN Not-ECT ttl 64 id 0 protocol 17 offset (bytes) 2960 flags [MF] length: 1500 10.1.1.1 > 10.1.1.5) Payload Fragment [2952:4432] ns3::EthernetTrailer (fcs=0)
- 2.06182 /NodeList/0/DeviceList/0/$ns3::CsmaNetDevice/TxQueue/Dequeue ns3::EthernetHeader ( length/type=0x800, source=00:00:00:00:00:01, destination=00:00:00:00:00:05) ns3::Ipv4Header (tos 0x0 DSCP Default ECN Not-ECT ttl 64 id 0 protocol 17 offset (bytes) 1480 flags [MF] length: 1500 10.1.1.1 > 10.1.1.5) Payload Fragment [1472:2952] ns3::EthernetTrailer (fcs=0)
r 2.06373 /NodeList/4/DeviceList/0/$ns3::CsmaNetDevice/MacRx ns3::EthernetHeader ( length/type=0x800, source=00:00:00:00:00:01, destination=00:00:00:00:00:05) ns3::Ipv4Header (tos 0x0 DSCP Default ECN Not-ECT ttl 64 id 0 protocol 17 offset (bytes) 0 flags [MF] length: 1500 10.1.1.1 > 10.1.1.5) ns3::UdpHeader (length: 32776 49153 > 9) Payload Fragment [0:1472] ns3::EthernetTrailer (fcs=0)
- 2.07576 /NodeList/6/DeviceList/0/$ns3::CsmaNetDevice/TxQueue/Dequeue ns3::EthernetHeader ( length/type=0x800, source=00:00:00:00:00:07, destination=00:00:00:00:00:03) ns3::Ipv4Header (tos 0x0 DSCP Default ECN Not-ECT ttl 64 id 0 protocol 17 offset (bytes) 2960 flags [MF] length: 1500 10.1.1.7 > 10.1.1.3) Payload Fragment [2952:4432] ns3::EthernetTrailer (fcs=0)
r 2.07766 /NodeList/2/DeviceList/0/$ns3::CsmaNetDevice/MacRx ns3::EthernetHeader ( length/type=0x800, source=00:00:00:00:00:07, destination=00:00:00:00:00:03) ns3::Ipv4Header (tos 0x0 DSCP Default ECN Not-ECT ttl 64 id 0 protocol 17 offset (bytes) 1480 flags [MF] length: 1500 10.1.1.7 > 10.1.1.3) Payload Fragment [1472:2952] ns3::EthernetTrailer (fcs=0)
- 2.08973 /NodeList/1/DeviceList/0/$ns3::CsmaNetDevice/TxQueue/Dequeue ns3::EthernetHeader ( length/type=0x800, source=00:00:00:00:00:02, destination=00:00:00:00:00:06) ns3::Ipv4Header (tos 0x0 DSCP Default ECN Not-ECT ttl 64 id 0 protocol 17 offset (bytes) 1480 flags [MF] length: 1500 10.1.1.2 > 10.1.1.6) Payload Fragment [1472:2952] ns3::EthernetTrailer (fcs=0)
r 2.09163 /NodeList/5/DeviceList/0/$ns3::CsmaNetDevice/MacRx ns3::EthernetHeader ( length/type=0x800, source=00:00:00:00:00:02, destination=00:00:00:00:00:06) ns3::Ipv4Header (tos 0x0 DSCP Default ECN Not-ECT ttl 64 id 0 protocol 17 offset (bytes) 0 flags [MF] length: 1500 10.1.1.2 > 10.1.1.6) ns3::UdpHeader (length: 32776 49153 > 9) Payload Fragment [0:1472] ns3::EthernetTrailer (fcs=0)
- 2.1036 /NodeList/0/DeviceList/0/$ns3::CsmaNetDevice/TxQueue/Dequeue ns3::EthernetHeader ( length/type=0x800, source=00:00:00:00:00:01, destination=00:00:00:00:00:05) ns3::Ipv4Header (tos 0x0 DSCP Default ECN Not-ECT ttl 64 id 0 protocol 17 offset (bytes) 2960 flags [MF] length: 1500 10.1.1.1 > 10.1.1.5) Payload Fragment [2952:4432] ns3::EthernetTrailer (fcs=0)
r 2.1055 /NodeList/4/DeviceList/0/$ns3::CsmaNetDevice/MacRx ns3::EthernetHeader ( length/type=0x800, source=00:00:00:00:00:01, destination=00:00:00:00:00:05) ns3::Ipv4Header (tos 0x0 DSCP Default ECN Not-ECT ttl 64 id 0 protocol 17 offset (bytes) 1480 flags [MF] length: 1500 10.1.1.1 > 10.1.1.5) Payload Fragment [1472:2952] ns3::EthernetTrailer (fcs=0)
r 2.11936 /NodeList/4/DeviceList/0/$ns3::CsmaNetDevice/MacRx ns3::EthernetHeader ( length/type=0x800, source=00:00:00:00:00:01, destination=00:00:00:00:00:05) ns3::Ipv4Header (tos 0x0 DSCP Default ECN Not-ECT ttl 64 id 0 protocol 17 offset (bytes) 2960 flags [MF] length: 1500 10.1.1.1 > 10.1.1.5) Payload Fragment [2952:4432] ns3::EthernetTrailer (fcs=0)
- 2.13132 /NodeList/1/DeviceList/0/$ns3::CsmaNetDevice/TxQueue/Dequeue ns3::EthernetHeader ( length/type=0x800, source=00:00:00:00:00:02, destination=00:00:00:00:00:06) ns3::Ipv4Header (tos 0x0 DSCP Default ECN Not-ECT ttl 64 id 0 protocol 17 offset (bytes) 2960 flags [MF] length: 1500 10.1.1.2 > 10.1.1.6) Payload Fragment [2952:4432] ns3::EthernetTrailer (fcs=0)
r 2.13323 /NodeList/5/DeviceList/0/$ns3::CsmaNetDevice/MacRx ns3::EthernetHeader ( length/type=0x800, source=00:00:00:00:00:02, destination=00:00:00:00:00:06) ns3::Ipv4Header (tos 0x0 DSCP Default ECN Not-ECT ttl 64 id 0 protocol 17 offset (bytes) 1480 flags [MF] length: 1500 10.1.1.2 > 10.1.1.6) Payload Fragment [1472:2952] ns3::EthernetTrailer (fcs=0)
r 2.14713 /NodeList/5/DeviceList/0/$ns3::CsmaNetDevice/MacRx ns3::EthernetHeader ( length/type=0x800, source=00:00:00:00:00:02, destination=00:00:00:00:00:06) ns3::Ipv4Header (tos 0x0 DSCP Default ECN Not-ECT ttl 64 id 0 protocol 17 offset (bytes) 2960 flags [MF] length: 1500 10.1.1.2 > 10.1.1.6) Payload Fragment [2952:4432] ns3::EthernetTrailer (fcs=0)
r 2.16105 /NodeList/2/DeviceList/0/$ns3::CsmaNetDevice/MacRx ns3::EthernetHeader ( length/type=0x800, source=00:00:00:00:00:07, destination=00:00:00:00:00:03) ns3::Ipv4Header (tos 0x0 DSCP Default ECN Not-ECT ttl 64 id 0 protocol 17 offset (bytes) 2960 flags [MF] length: 1500 10.1.1.7 > 10.1.1.3) Payload Fragment [2952:4432] ns3::EthernetTrailer (fcs=0)
- 2.17313 /NodeList/7/DeviceList/0/$ns3::CsmaNetDevice/TxQueue/Dequeue ns3::EthernetHeader ( length/type=0x800, source=00:00:00:00:00:08, destination=00:00:00:00:00:04) ns3::Ipv4Header (tos 0x0 DSCP Default ECN Not-ECT ttl 64 id 0 protocol 17 offset (bytes) 2960 flags [MF] length: 1500 10.1.1.8 > 10.1.1.4) Payload Fragment [2952:4432] ns3::EthernetTrailer (fcs=0)
r 2.17504 /NodeList/3/DeviceList/0/$ns3::CsmaNetDevice/MacRx ns3::EthernetHeader ( length/type=0x800, source=00:00:00:00:00:08, destination=00:00:00:00:00:04) ns3::Ipv4Header (tos 0x0 DSCP Default ECN Not-ECT ttl 64 id 0 protocol 17 offset (bytes) 1480 flags [MF] length: 1500 10.1.1.8 > 10.1.1.4) Payload Fragment [1472:2952] ns3::EthernetTrailer (fcs=0)
r 2.18968 /NodeList/3/DeviceList/0/$ns3::CsmaNetDevice/MacRx ns3::EthernetHeader ( length/type=0x800, source=00:00:00:00:00:08, destination=00:00:00:00:00:04) ns3::Ipv4Header (tos 0x0 DSCP Default ECN Not-ECT ttl 64 id 0 protocol 17 offset (bytes) 2960 flags [MF] length: 1500 10.1.1.8 > 10.1.1.4) Payload Fragment [2952:4432] ns3::EthernetTrailer (fcs=0)
+ 32.0279 /NodeList/3/DeviceList/0/$ns3::CsmaNetDevice/TxQueue/Enqueue ns3::EthernetHeader ( length/type=0x806, source=00:00:00:00:00:04, destination=ff:ff:ff:ff:ff:ff) ns3::ArpHeader (request source mac: 00-06-00:00:00:00:00:04 source ipv4: 10.1.1.4 dest ipv4: 10.1.1.8) Payload (size=18) ns3::EthernetTrailer (fcs=0)
- 32.0279 /NodeList/3/DeviceList/0/$ns3::CsmaNetDevice/TxQueue/Dequeue ns3::EthernetHeader ( length/type=0x806, source=00:00:00:00:00:04, destination=ff:ff:ff:ff:ff:ff) ns3::ArpHeader (request source mac: 00-06-00:00:00:00:00:04 source ipv4: 10.1.1.4 dest ipv4: 10.1.1.8) Payload (size=18) ns3::EthernetTrailer (fcs=0)
r 32.0304 /NodeList/0/DeviceList/0/$ns3::CsmaNetDevice/MacRx ns3::EthernetHeader ( length/type=0x806, source=00:00:00:00:00:04, destination=ff:ff:ff:ff:ff:ff) ns3::ArpHeader (request source mac: 00-06-00:00:00:00:00:04 source ipv4: 10.1.1.4 dest ipv4: 10.1.1.8) Payload (size=18) ns3::EthernetTrailer (fcs=0)